<?xml version="1.0"?>
<VTKFile type="UnstructuredGrid"  version="0.1"  >
<UnstructuredGrid>
<Piece  NumberOfPoints="1000" NumberOfCells="1978">
<Points>
<DataArray  type="Float64"  NumberOfComponents="3"  format="ascii">1.850550e-01 9.279898e-01 0.000000e+00  1.263966e-01 1.144310e-01 0.000000e+00  7.742046e-01 5.259123e-01 0.000000e+00  7.432510e-01 1.046246e-01 0.000000e+00  4.155535e-01 6.049300e-02 0.000000e+00  8.516032e-01 9.642785e-02 0.000000e+00  1.940213e-02 5.531126e-01 0.000000e+00  3.568517e-01 8.684371e-01 0.000000e+00  7.317079e-01 1.270691e-01 0.000000e+00  8.364307e-01 4.714453e-01 0.000000e+00  1.053546e-01 2.359574e-01 0.000000e+00  2.689612e-01 5.060506e-01 0.000000e+00  6.478720e-01 4.577114e-01 0.000000e+00  2.318843e-01 1.034767e-01 0.000000e+00  5.092990e-01 6.753101e-01 0.000000e+00  7.438047e-01 4.979916e-01 0.000000e+00  7.597744e-01 2.528235e-01 0.000000e+00  1.136585e-01 4.815016e-01 0.000000e+00  8.386500e-01 8.378799e-01 0.000000e+00  2.914315e-01 9.468125e-01 0.000000e+00  6.452710e-01 6.669068e-01 0.000000e+00  7.668681e-01 1.034171e-01 0.000000e+00  3.055523e-01 5.367591e-01 0.000000e+00  6.006058e-01 6.813676e-01 0.000000e+00  9.095604e-01 8.567189e-01 0.000000e+00  8.084851e-01 6.498626e-03 0.000000e+00  1.504143e-01 7.415992e-01 0.000000e+00  2.554964e-01 2.856410e-01 0.000000e+00  3.199049e-01 3.006249e-01 0.000000e+00  2.007785e-01 9.191237e-01 0.000000e+00  5.083694e-01 3.286370e-01 0.000000e+00  7.302205e-01 6.172111e-01 0.000000e+00  9.027155e-02 5.800177e-01 0.000000e+00  9.054224e-01 2.567625e-01 0.000000e+00  1.704367e-01 2.479280e-01 0.000000e+00  7.867390e-01 3.856184e-01 0.000000e+00  8.105238e-01 8.909074e-01 0.000000e+00  6.434633e-01 8.839483e-01 0.000000e+00  6.796332e-01 1.231190e-02 0.000000e+00  9.639694e-01 7.376778e-01 0.000000e+00  1.905652e-01 2.225539e-01 0.000000e+00  4.858309e-01 1.272764e-01 0.000000e+00  2.415650e-01 1.463810e-01 0.000000e+00  3.421953e-01 4.901646e-01 0.000000e+00  1.164421e-02 4.126726e-01 0.000000e+00  5.816646e-01 8.239371e-01 0.000000e+00  5.651814e-01 4.513002e-01 0.000000e+00  9.988149e-02 8.157050e-01 0.000000e+00  4.366595e-01 4.050968e-01 0.000000e+00  2.162166e-01 9.335529e-01 0.000000e+00  6.457186e-02 3.695901e-01 0.000000e+00  6.220602e-02 5.272187e-01 0.000000e+00  4.092828e-01 1.901058e-01 0.000000e+00  3.563862e-01 4.789086e-01 0.000000e+00  5.393204e-01 7.677569e-01 0.000000e+00  5.435088e-01 8.436472e-02 0.000000e+00  9.515220e-01 8.168579e-01 0.000000e+00  8.784939e-02 2.629740e-01 0.000000e+00  9.081449e-02 4.236215e-01 0.000000e+00  8.115842e-01 9.664065e-01 0.000000e+00  9.138529e-01 1.963771e-01 0.000000e+00  7.888979e-01 5.360919e-01 0.000000e+00  9.797823e-02 6.781457e-02 0.000000e+00  1.017635e-01 4.322947e-01 0.000000e+00  7.439804e-01 2.640196e-01 0.000000e+00  3.999744e-01 2.586452e-01 0.000000e+00  8.430783e-01 7.911057e-02 0.000000e+00  6.190316e-01 6.481899e-01 0.000000e+00  3.076606e-01 4.145758e-01 0.000000e+00  5.920338e-01 9.513952e-02 0.000000e+00  8.528083e-01 7.294907e-02 0.000000e+00  6.169624e-01 3.408715e-01 0.000000e+00  9.879274e-01 3.167662e-01 0.000000e+00  1.008653e-01 2.737504e-01 0.000000e+00  2.424208e-02 8.832372e-01 0.000000e+00  6.670472e-01 5.116330e-01 0.000000e+00  7.446542e-01 4.074469e-01 0.000000e+00  3.814344e-01 5.206697e-01 0.000000e+00  8.841335e-01 1.314754e-01 0.000000e+00  3.278858e-01 7.564406e-01 0.000000e+00  2.436394e-01 5.469576e-01 0.000000e+00  3.057984e-01 1.392017e-01 0.000000e+00  6.175904e-01 6.318266e-03 0.000000e+00  1.142568e-01 7.993174e-01 0.000000e+00  8.209317e-01 1.996200e-01 0.000000e+00  1.529247e-02 6.109587e-01 0.000000e+00  1.659733e-02 7.042168e-01 0.000000e+00  8.111519e-01 8.192425e-01 0.000000e+00  7.859291e-01 9.751312e-01 0.000000e+00  1.831388e-01 9.147473e-01 0.000000e+00  7.751182e-01 9.047168e-01 0.000000e+00  3.429344e-01 2.230244e-01 0.000000e+00  6.891167e-01 6.431456e-01 0.000000e+00  4.813421e-01 9.374536e-02 0.000000e+00  1.561209e-01 2.233313e-01 0.000000e+00  7.470103e-01 2.348190e-01 0.000000e+00  5.727248e-01 1.086504e-01 0.000000e+00  1.400420e-01 8.478905e-01 0.000000e+00  5.383690e-02 3.750528e-01 0.000000e+00  9.288537e-01 1.869034e-01 0.000000e+00  5.095795e-01 4.554235e-01 0.000000e+00  2.387907e-01 3.251629e-01 0.000000e+00  2.018170e-01 1.440204e-02 0.000000e+00  8.002597e-01 5.312588e-01 0.000000e+00  3.491733e-01 7.802840e-01 0.000000e+00  4.630662e-01 7.843206e-01 0.000000e+00  7.725369e-01 7.247147e-01 0.000000e+00  2.549003e-01 2.443384e-01 0.000000e+00  5.248020e-01 8.592318e-01 0.000000e+00  2.981261e-01 8.978888e-01 0.000000e+00  9.569426e-01 7.637973e-01 0.000000e+00  6.795468e-01 5.680986e-02 0.000000e+00  8.335240e-01 4.374380e-01 0.000000e+00  2.307630e-01 5.976463e-01 0.000000e+00  2.846230e-01 3.964122e-01 0.000000e+00  4.232835e-02 6.081573e-01 0.000000e+00  4.426340e-01 8.022747e-01 0.000000e+00  4.708575e-01 3.097909e-02 0.000000e+00  4.660490e-01 3.372537e-01 0.000000e+00  6.122621e-01 8.364483e-01 0.000000e+00  3.652506e-01 8.548666e-01 0.000000e+00  2.019813e-01 6.514298e-01 0.000000e+00  2.891003e-01 3.105656e-01 0.000000e+00  1.450123e-02 6.716355e-01 0.000000e+00  4.688779e-01 3.595105e-01 0.000000e+00  8.912023e-02 2.280336e-01 0.000000e+00  5.018829e-01 1.356129e-01 0.000000e+00  3.363361e-01 6.327432e-01 0.000000e+00  7.628870e-02 3.230883e-01 0.000000e+00  4.555082e-01 1.410432e-02 0.000000e+00  6.394329e-01 5.772519e-01 0.000000e+00  4.038304e-02 1.289538e-01 0.000000e+00  7.708905e-02 6.719626e-01 0.000000e+00  3.253522e-01 9.954769e-02 0.000000e+00  1.349981e-03 1.722808e-01 0.000000e+00  4.172740e-01 1.029598e-02 0.000000e+00  5.213791e-02 6.217795e-01 0.000000e+00  1.742669e-01 2.534145e-01 0.000000e+00  9.906529e-01 1.176305e-01 0.000000e+00  8.478163e-01 4.332639e-01 0.000000e+00  7.097404e-01 7.509161e-01 0.000000e+00  5.366663e-01 6.542298e-01 0.000000e+00  9.452812e-01 9.880840e-01 0.000000e+00  6.752296e-01 5.252040e-01 0.000000e+00  5.565142e-01 8.805497e-01 0.000000e+00  5.035688e-01 9.254371e-01 0.000000e+00  4.000337e-01 7.467229e-01 0.000000e+00  8.502144e-01 1.917506e-01 0.000000e+00  8.312623e-01 6.594508e-01 0.000000e+00  9.787406e-01 5.392052e-01 0.000000e+00  9.696794e-01 1.653090e-01 0.000000e+00  3.742248e-01 6.402465e-03 0.000000e+00  8.505861e-01 5.697472e-01 0.000000e+00  1.861935e-01 5.391311e-01 0.000000e+00  1.301613e-01 4.149666e-02 0.000000e+00  7.838344e-01 2.067531e-01 0.000000e+00  3.928848e-01 7.198610e-01 0.000000e+00  2.344084e-01 7.871560e-01 0.000000e+00  2.514771e-01 2.969823e-01 0.000000e+00  9.891139e-01 1.872406e-01 0.000000e+00  9.231456e-01 6.094764e-01 0.000000e+00  5.346000e-01 8.952370e-01 0.000000e+00  3.999009e-01 8.880621e-02 0.000000e+00  4.126182e-01 4.715840e-01 0.000000e+00  5.733301e-01 4.274223e-01 0.000000e+00  4.994777e-01 4.111777e-01 0.000000e+00  2.704869e-01 8.791392e-01 0.000000e+00  8.888248e-01 3.012765e-01 0.000000e+00  7.781471e-01 2.240597e-01 0.000000e+00  5.989477e-01 1.991063e-01 0.000000e+00  6.551410e-01 6.884008e-01 0.000000e+00  4.401144e-01 4.343636e-01 0.000000e+00  6.998342e-01 5.796869e-02 0.000000e+00  3.229155e-01 2.350166e-01 0.000000e+00  3.567198e-01 9.925742e-01 0.000000e+00  5.529393e-01 5.683810e-01 0.000000e+00  5.212692e-01 2.888744e-01 0.000000e+00  9.079002e-01 4.461904e-01 0.000000e+00  5.688073e-01 7.822958e-01 0.000000e+00  2.786239e-02 5.747913e-01 0.000000e+00  2.859009e-01 6.720698e-01 0.000000e+00  3.055499e-01 2.039770e-01 0.000000e+00  7.746198e-01 6.040543e-01 0.000000e+00  7.080780e-01 3.369510e-01 0.000000e+00  3.172372e-01 7.458162e-02 0.000000e+00  8.344006e-01 8.907916e-01 0.000000e+00  5.790137e-01 9.842702e-01 0.000000e+00  9.190007e-01 5.621344e-01 0.000000e+00  8.090676e-02 9.239504e-01 0.000000e+00  4.560183e-01 2.143249e-01 0.000000e+00  8.957760e-01 1.315646e-01 0.000000e+00  2.922741e-01 4.437122e-01 0.000000e+00  7.783562e-01 1.914661e-01 0.000000e+00  2.962566e-02 7.734050e-01 0.000000e+00  9.676848e-02 1.912997e-01 0.000000e+00  3.419815e-01 1.326378e-01 0.000000e+00  7.875476e-01 5.058453e-01 0.000000e+00  4.203595e-01 6.832704e-02 0.000000e+00  3.503145e-01 3.360891e-01 0.000000e+00  3.381427e-01 5.479507e-01 0.000000e+00  8.108884e-01 3.724920e-01 0.000000e+00  8.397150e-01 3.829653e-01 0.000000e+00  9.974058e-02 5.660382e-01 0.000000e+00  6.432747e-01 3.795036e-02 0.000000e+00  1.459410e-01 5.188478e-01 0.000000e+00  7.777548e-02 5.269483e-01 0.000000e+00  5.953254e-02 6.124641e-01 0.000000e+00  7.993790e-01 3.817295e-01 0.000000e+00  4.166317e-01 9.423904e-01 0.000000e+00  3.178273e-01 7.994851e-01 0.000000e+00  3.878670e-01 3.327926e-02 0.000000e+00  9.494156e-01 6.172534e-01 0.000000e+00  7.378514e-01 7.833514e-01 0.000000e+00  3.331644e-01 8.353183e-01 0.000000e+00  1.128898e-01 8.897399e-01 0.000000e+00  4.243435e-01 3.873824e-01 0.000000e+00  6.958547e-01 6.694250e-01 0.000000e+00  3.484265e-01 7.853971e-01 0.000000e+00  5.922762e-01 9.070374e-02 0.000000e+00  2.625789e-02 2.363549e-01 0.000000e+00  4.095616e-01 4.841180e-01 0.000000e+00  4.751193e-01 3.782925e-01 0.000000e+00  5.216550e-02 9.301342e-01 0.000000e+00  2.038252e-01 7.902224e-01 0.000000e+00  3.753055e-01 4.742757e-01 0.000000e+00  6.364081e-01 1.006221e-01 0.000000e+00  9.159582e-01 6.482065e-01 0.000000e+00  5.539789e-01 8.622053e-01 0.000000e+00  5.795380e-01 3.189263e-01 0.000000e+00  4.421148e-01 1.209372e-01 0.000000e+00  2.467850e-01 8.634620e-02 0.000000e+00  6.771023e-01 2.817424e-01 0.000000e+00  4.313695e-01 4.612762e-01 0.000000e+00  4.321356e-01 9.167804e-01 0.000000e+00  7.017356e-02 3.862672e-01 0.000000e+00  9.148099e-01 3.401676e-02 0.000000e+00  1.203447e-02 7.209933e-01 0.000000e+00  7.496303e-01 2.144650e-02 0.000000e+00  7.172277e-01 3.568204e-01 0.000000e+00  7.577343e-01 3.332731e-01 0.000000e+00  9.987887e-01 8.356926e-01 0.000000e+00  3.452963e-01 2.540255e-01 0.000000e+00  7.337281e-01 9.392488e-01 0.000000e+00  9.839546e-01 6.240892e-01 0.000000e+00  9.112988e-01 5.06040
[...]
<PointData  Scalars="scalar variable">
<DataArray  type="Float64"  Name="scalar variable"  format="ascii">1.142386e-01  1.223275e+00  1.676613e+00  1.311094e+00  3.505071e-01  1.257368e+00  1.326874e+00  1.503058e+00  1.094320e+00  1.152154e+00  2.063322e-01  1.129917e+00  1.024921e+00  1.192328e+00  3.445771e-01  1.440213e+00  8.567065e-02  1.289892e+00  5.070655e-01  9.735291e-01  1.300938e+00  1.330268e+00  9.142022e-01  9.426087e-01  8.980471e-01  1.876889e+00  1.233657e+00  6.242991e-01  1.254089e+00  1.965615e-01  1.791692e+00  1.935053e+00  1.856935e+00  8.420025e-01  1.543111e-01  4.037258e-01  1.445748e-01  6.809808e-01  1.620361e+00  8.896812e-01  3.509564e-01  9.079228e-01  9.533716e-01  8.246329e-01  8.829395e-01  1.145532e+00  9.997436e-01  5.508560e-01  1.440498e+00  3.014346e-01  4.545721e-01  1.504562e+00  1.461894e+00  8.407686e-01  1.015013e+00  6.963107e-01  1.140950e+00  1.612584e-01  7.559896e-01  1.897722e-01  9.518610e-01  1.729687e+00  1.590381e+00  8.233105e-01  6.689553e-02  1.817070e+00  1.390644e+00  1.098539e+00  1.048252e+00  9.339790e-01  1.383884e+00  9.229175e-01  1.593269e+00  8.426813e-02  6.044129e-01  1.314671e+00  5.850346e-01  5.098081e-01  1.020955e+00  9.703984e-01  1.395691e+00  1.002464e+00  1.089398e+00  6.759022e-01  5.025513e-01  1.345523e+00  1.205537e+00  5.399446e-01  1.536032e-01  1.068857e-01  2.037729e-02  1.354987e+00  1.679495e+00  5.989759e-01  2.542447e-01  1.849331e-01  9.022622e-01  2.658262e-01  5.353921e-01  1.030448e+00  9.650862e-01  4.992443e-01  1.750932e+00  1.674335e+00  1.077537e+00  1.186783e+00  1.394697e+00  6.639242e-01  1.598001e+00  1.038465e+00  9.945915e-01  1.470064e+00  8.931371e-01  1.588972e+00  9.503716e-01  1.583704e+00  1.359130e+00  1.438972e-01  1.898626e+00  9.742859e-01  1.508978e+00  1.723784e+00  9.501112e-01  1.272649e+00  1.781634e+00  2.998172e-01  9.871738e-01  6.027758e-01  2.132651e-01  5.845246e-02  1.291492e+00  1.046088e+00  1.663791e+00  8.875013e-01  9.269461e-01  1.000691e-01  1.654446e+00  1.446209e-01  8.782118e-01  8.785780e-01  1.122533e+00  4.112445e-01  1.179133e+00  1.418094e+00  1.452289e+00  1.865796e+00  8.381447e-01  6.561711e-01  1.689677e+00  5.889943e-01  1.126656e+00  3.070615e-01  1.610185e+00  1.679029e+00  1.814839e+00  3.691584e-01  6.329831e-01  8.785574e-01  5.861856e-01  1.297220e+00  9.933226e-01  1.647419e+00  5.956379e-01  8.128317e-01  1.080871e+00  1.345481e+00  7.871629e-01  6.706221e-01  2.420015e-01  1.054389e+00  1.314159e+00  1.166915e+00  1.563686e+00  1.235443e+00  1.447518e+00  5.154709e-01  1.763579e+00  9.926697e-01  1.064732e+00  1.434915e+00  1.066287e+00  1.070490e+00  1.994846e+00  2.355875e-01  8.661704e-01  2.671633e-01  1.235455e+00  1.031122e+00  1.537562e-01  1.697097e+00  1.014544e+00  9.985825e-01  4.868915e-01  9.619171e-01  5.253398e-01  9.795655e-01  1.506641e+00  3.953903e-01  1.486373e+00  6.494674e-01  3.634894e-01  5.354368e-01  1.849106e+00  1.286570e+00  1.623292e+00  1.569535e+00  1.713478e+00  3.961643e-01  1.922124e+00  1.078387e+00  3.058637e-01  7.349297e-01  8.281628e-01  1.244722e+00  8.068042e-02  1.574615e+00  1.628837e+00  1.102593e+00  9.285480e-01  6.262445e-01  7.047410e-01  1.647557e+00  3.413073e-01  8.070268e-01  8.343890e-01  1.098842e+00  1.060035e+00  1.425939e+00  1.275188e+00  8.399440e-01  1.221654e+00  3.700197e-01  9.017666e-01  1.980216e+00  5.254659e-01  1.065697e+00  1.135278e+00  1.903977e+00  2.821558e-01  7.823799e-02  1.446819e+00  1.450487e+00  6.306460e-02  4.303889e-01  1.058121e+00  2.161881e-01  5.846713e-01  9.471106e-01  5.679895e-01  1.262422e+00  1.106907e+00  2.760673e-01  4.757072e-01  1.324114e+00  1.380224e+00  1.062606e+00  3.555050e-01  1.469153e+00  8.979670e-01  1.973062e+00  7.063759e-02  5.579820e-01  1.074298e+00  3.145369e-01  2.242895e-01  5.526756e-01  1.645483e+00  1.089424e+00  8.443480e-01  1.609607e+00  1.528454e+00  1.004549e+00  1.292830e+00  1.134869e+00  1.672735e+00  9.820517e-01  1.370206e+00  4.419233e-01  1.340384e+00  1.141329e+00  5.689673e-01  1.037722e+00  1.021965e+00  5.987120e-01  2.475146e-01  1.178245e+00  1.118082e+00  1.199391e+00  1.395340e+00  2.237619e-01  1.568115e+00  7.465729e-01  1.013302e+00  1.025930e+00  1.179340e+00  1.466702e+00  1.854241e+00  1.021338e+00  1.630291e+00  5.999834e-01  4.338943e-01  3.674114e-01  1.284510e+00  1.410385e+00  7.842036e-01  1.312636e+00  1.171272e+00  1.061668e+00  1.033435e+00  1.116839e+00  2.589960e-01  6.883050e-01  1.818793e-01  1.855807e+00  1.257285e+00  7.905682e-01  4.011515e-01  2.702456e-01  1.963280e-01  2.608368e-01  1.113446e+00  1.083643e+00  1.007893e+00  4.433347e-01  1.384227e+00  2.894190e-01  5.887175e-01  8.204161e-01  1.980120e-02  1.118233e-01  3.299258e-01  1.118492e+00  1.333992e+00  1.842794e+00  5.754205e-01  1.105745e+00  2.341756e-01  1.790902e+00  2.341949e-01  1.199898e+00  1.909657e+00  9.650638e-01  3.713527e-02  1.567246e+00  1.262547e+00  1.116174e+00  1.002429e+00  9.706755e-01  4.406035e-01  9.303262e-01  1.061518e+00  1.456325e+00  2.828347e-01  3.802307e-01  9.464580e-01  1.376666e+00  1.265402e+00  2.756146e-01  7.592691e-01  1.708970e+00  2.310913e-01  2.302984e-01  8.104699e-01  1.787008e+00  1.269043e+00  9.148601e-01  1.030914e-01  2.940647e-01  1.830368e+00  1.157316e+00  1.315891e+00  1.554106e+00  1.551088e+00  1.838745e+00  1.211120e+00  1.809699e+00  8.177299e-01  1.602389e-01  4.645584e-01  1.556263e+00  1.730178e+00  9.094141e-02  1.137935e-01  1.624938e+00  1.202360e+00  4.996116e-01  6.886576e-01  1.230841e+00  4.077598e-01  7.130036e-01  7.924842e-01  1.896149e+00  4.556839e-01  1.064231e+00  1.172250e+00  1.396253e+00  1.351474e+00  9.143228e-01  1.741377e+00  9.371643e-01  1.615138e+00  1.662524e+00  3.232448e-01  7.866943e-01  5.288689e-01  1.025167e+00  9.099751e-01  1.544385e+00  1.203789e+00  7.350238e-01  1.379890e-01  1.302519e+00  1.405161e+00  1.188679e-01  2.809525e-01  1.491775e+00  1.515583e+00  1.672446e+00  9.830152e-01  9.859119e-01  4.769884e-01  8.040454e-01  5.606323e-01  4.733039e-01  1.071271e+00  1.480448e-01  1.194577e+00  4.701058e-01  1.497457e+00  5.189210e-01  9.771902e-01  8.726732e-01  1.273879e+00  8.922309e-01  1.133321e-01  8.916134e-01  5.171157e-02  9.016049e-01  4.189233e-01  5.811710e-01  1.552853e+00  5.248560e-01  1.902249e-02  6.773817e-01  1.148637e+00  4.934945e-01  1.394229e+00  1.198228e+00  6.652952e-01  4.465317e-01  1.505361e+00  1.128690e+00  1.488863e+00  3.804576e-01  1.399160e+00  1.523986e-01  7.118713e-02  1.520111e-01  7.927571e-01  1.150056e+00  9.639208e-01  1.434750e+00  1.310703e+00  1.198444e+00  2.106496e-01  6.954882e-01  8.042032e-02  9.628129e-01  1.139909e+00  4.052447e-01  1.820184e+00  1.840003e+00  4.864491e-01  1.373854e+00  9.978903e-01  1.644121e+00  2.990969e-01  1.091521e+00  1.381112e+00  6.659618e-02  1.842279e+00  6.662273e-02  1.878657e+00  1.167072e+00  6.389599e-01  2.022758e-01  1.434539e+00  4.370675e-01  4.905467e-01  1.017788e-01  9.569000e-01  1.174589e+00  2.261632e-01  1.309580e+00  1.776494e+00  1.004277e+00  7.825546e-01  7.845525e-01  1.204667e+00  4.746914e-01  7.066084e-02  1.088152e+00  1.214868e+00  9.829456e-01  1.295397e+00  5.869576e-01  8.334702e-01  1.069247e+00  1.385523e-01  7.498843e-01  8.873091e-01  1.687406e+00  6.512828e-01  9.467562e-01  1.111676e+00  9.550392e-01  1.519401e+00  1.632919e+00  9.527036e-01  9.942076e-01  9.772126e-01  1.305790e+00  5.882034e-01  9.915793e-01  3.387364e-01  7.921719e-01  1.837464e+00  1.227011e+00  7.686249e-01  1.157054e+00  3.337885e-01  1.104200e+00  6.450317e-01  7.444576e-01  7.022035e-01  1.914168e+00  5.345612e-01  6.349157e-01  1.935842e+00  1.110768e+00  8.699549e-01  6.480021e-01  5.612387e-01  1.220697e+00  1.432645e+00  6.877766e-01  1.252376e+00  9.346372e-01  9.547840e-01  1.385960e-01  1.190901e+00  9.038403e-01  1.871705e+00  1.412214e-01  1.112324e+00  5.113362e-01  3.851981e-01  1.656437e-01  9.425286e-01  8.380986e-01  1.503113e+00  1.867686e+00  8.235041e-01  1.166327e-01  3.842902e-02  1.312422e+00  1.397485e+00  1.037937e+00  1.342031e+00  7.911105e-01  1.408761e+00  4.119335e-01  6.236663e-01  4.672333e-01  1.631808e+00  1.128966e+00  9.174736e-01  7.035323e-01  1.028046e+00  9.796498e-01  1.107551e+00  2.143563e-01  1.473701e+00  1.715501e+00  1.267046e+00  8.537186e-01  1.016209e+00  7.211467e-01  5.455824e-01  9.777314e-01  3.544220e-01  2.283504e-01  7.619841e-01  8.468951e-01  1.304911e+00  1.664589e-02  4.817362e-01  1.075018e+00  9.137525e-01  1.712268e+00  1.085565e+00  1.007382e-01  1.844929e+00  2.058666e-01  1.044511e+00  1.573470e+00  1.309490e+00  1.667597e+00  1.007710e+00  9.295906e-01  1.398935e+00  1.310724e+00  1.182691e-01  1.957457e+00  1.259422e+00  1.062018e+00  6.321042e-01  8.479136e-01  1.160370e+00  1.588030e+00  9.678386e-01  5.359729e-01  1.483322e+00  1.245047e+00  1.413743e+00  1.923429e+00  1.527261e+00  7.337749e-01  3.339071e-01  4.366646e-01  6.842534e-01  9.004755e-01  1.041534e+00  4.936247e-01  1.000223e+00  1.163296e+00  5.563737e-01  1.014637e+00  1.627978e+00  4.405203e-01  1.449458e+00  1.251635e+00  7.829133e-01  9.943043e-01  1.118343e+00  8.769932e-01  1.229197e+00  1.625561e+00  7.842104e-01  1.345254e-01  1.497786e+00  1.028026e+00  8.561849e-01  1.262372e+00  2.459323e-01  1.150362e+00  1.555229e-01  1.122178e+00  7.658144e-01  6.965125e-01  1.140125e+00  7.470483e-01  7.487745e-01  1.133362e+00  2.895479e-01  5.286487e-01  9.917469e-01  1.098782e+00  5.926409e-02  1.478319e+00  1.138852e+00  1.408969e+00  1.983961e+00  6.498238e-01  9.360554e-01  1.596369e+00  4.932084e-01  1.761140e+00  9.902100e-01  1.009819e+00  5.384983e-02  1.545439e+00  6.289776e-01  1.557064e+00  1.093074e+00  1.363407e+00  9.866523e-01  1.089961e+00  6.549878e-02  7.094839e-01  5.970898e-01  1.899962e+00  1.295015e-01  1.192194e+00  1.387387e+00  1.497539e+00  4.281524e-01  1.151196e+00  1.074386e+00  1.357970e+00  9.148633e-01  1.893294e+00  2.983198e-01  9.079026e-02  1.259199e+00  5.465197e-01  7.735729e-01  1.172366e+00  1.720283e+00  1.212871e+00  1.163788e+00  1.564654e+00  1.104295e+00  8.149926e-01  1.792084e+00  1.288026e-01  1.820731e+00  7.005058e-01  1.160077e+00  1.057731e+00  3.943489e-01  4.013095e-01  1.252937e+00  7.145701e-02  9.736007e-01  5.183393e-01  1.531057e+00  9.893225e-01  1.051644e+00  1.911769e+00  1.065636e+00  1.491173e+00  9.873743e-01  7.773228e-01  1.433825e+00  8.899146e-01  6.545263e-01  4.367066e-01  5.718051e-01  6.464250e-01  1.118853e+00  1.403253e+00  3.515060e-01  3.038889e-01  5.024976e-01  2.207632e-01  8.880793e-01  1.585471e+00  1.389687e+00  9.821178e-01  8.533032e-01  1.213392e+00  3.839816e-01  8.068667e-01  1.287697e+00  1.653605e+00  1.836186e+00  1.063878e+00  1.972297e+00  4.216899e-01  1.510853e+00  7.725079e-01  9.408759e-01  1.215711e-01  8.605150e-01  1.255771e+00  1.908910e+00  3.218184e-01  9.172095e-01  1.334422e+00  5.842448e-01  7.969813e-01  1.885106e+00  2.979351e-02  9.757815e-01  1.046322e-01  1.562958e+00  1.237722e-01  3.570052e-01  1.675066e+00  1.782285e+00  6.580213e-01  1.064425e+00  8.288010e-01  1.369593e+00  1.326573e+00  1.456940e+00  5.174644e-01  1.232918e+00  1.687708e+00  4.489350e-01  1.368855e+00  1.154148e+00  1.205319e+00  1.139986e+00  1.156222e+00  1.032040e+00  9.926758e-01  8.331046e-01  4.952574e-01  1.006054e+00  1.578225e+00  1.855352e+00  6.435223e-01  9.857528e-02  2.546023e-02  1.921478e-01  1.079337e+00  5.096741e-01  9.662988e-01  1.258444e+00  2.351378e-01  1.869476e+00  1.039480e+00  1.064895e+00  5.786400e-01  1.707776e+00  2.646860e-01  4.918161e-01  7.088020e-01  1.097363e+00  9.593232e-01  7.810073e-01  2.388650e-01  1.800640e+00  9.772308e-01  4.315149e-01  1.465685e+00  7.622590e-01  8.182646e-01  9.909266e-01  3.565971e-01  1.536016e+00  7.514064e-01  9.624591e-02  6.683506e-01  1.725113e+00  5.872524e-01  1.749580e+00  4.451090e-01  1.310997e+00  2.125822e-01  1.276755e+00  5.484469e-01  1.914342e+00  7.736444e-01  1.346865e+00  1.501361e+00  1.023006e+00  5.820882e-01  1.221834e+00  5.222476e-01  9.293733e-01  3.884750e-01  9.164965e-01  1.715244e+00  1.085089e+00  2.619053e-01  1.745129e+00  9.140330e-01  1.716741e+00  8.343964e-01  1.609565e+00  1.814497e+00  8.285861e-01  7.042681e-01  3.806733e-01  4.224086e-02  1.677356e+00  1.708282e+00  1.144244e+00  9.056777e-01  1.585913e+00  1.480021e+00  5.444282e-01  1.207104e+00  3.533352e-01  8.910265e-01  3.716904e-01  1.575301e+00  1.610177e+00  7.286333e-01  1.451881e+00  9.183054e-01  1.289207e+00  2.729529e-01  3.204799e-01  1.215346e+00  1.915977e+00  9.252902e-01  1.729687e-01  1.696638e-01  1.864120e+00  4.464692e-01  9.921844e-01  1.185499e+00  1.315594e-01  6.265854e-02  1.455907e-01  1.857947e+00  1.236031e+00  9.999955e-01  1.016092e+00  1.000256e+00  8.067609e-01  2.642411e-01  8.422484e-01  9.755223e-01  1.605764e+00  1.068220e+00  2.152857e-01  2.533782e-01  1.549555e+00  7.192518e-02  1.282661e+00  1.263203e+00  1.709625e+00  7.040915e-01  1.035781e+00  3.460428e-02  3.846789e-01  9.297759e-01  1.063248e+00  1.669021e+00  1.505264e+00  7.445337e-01  1.752671e+00  2.159864e-01  1.127581e+00  1.107617e+00  8.315026e-01  9.872773e-01  4.144938e-01  1.787481e+00  1.818806e+00  1.450221e+00  5.742911e-01  6.074225e-01  1.677816e+00  1.730924e+00  1.113127e+00  1.121435e+00  1.008171e+00  6.952116e-01  8.950996e-01  4.022649e-01  1.383083e-02  1.946689e+00  1.713899e+00  3.976854e-01  6.839181e-01  8.505754e-01  1.855534e+00  1.712130e+00  3.605883e-01  4.665230e-01  1.225301e+00  1.432910e-02  1.725811e-01  1.236296e+00  2.527000e-02  7.388128e-01  3.422431e-01  1.935146e+00  9.317131e-01  1.067050e+00  1.264890e+00  2.873404e-01  1.505670e+00  1.037567e+00  1.069479e+00  1.001801e+00  2.383275e-01  1.025595e+00  4.788595e-01  1.941219e+00  1.525522e+00  9.506703e-01  1.799055e+00  6.981481e-01  1.484070e+00  1.281974e+00  7.208073e-01  1.505611e+00  1.316934e+00  1.453541e+00  1.119789e+00  8.648741e-01  1.826536e-01  1.665483e+00  1.609519e+00  1.662636e+00  1.054666e+00  9.764133e-01  5.867580e-02  2.744212e-03  1.417016e-01  1.948474e+00  1.178850e+00  1.161848e+00  </DataArray>
</PointData>
</Piece>
</UnstructuredGrid>
</VTKFile>