<?xml version="1.0"?>
<VTKFile type="UnstructuredGrid"  version="0.1"  >
<UnstructuredGrid>
<Piece  NumberOfPoints="1106" NumberOfCells="4531">
<Points>
<DataArray  type="Float64"  NumberOfComponents="3"  format="ascii">0.000000e+00 4.610989e-01 4.937894e-01  1.000000e+00 1.000000e+00 0.000000e+00  1.000000e+00 0.000000e+00 1.000000e+00  1.000000e+00 0.000000e+00 5.830776e-01  7.262934e-01 1.206091e-01 4.260734e-01  4.951710e-01 3.736433e-01 7.529010e-01  0.000000e+00 1.000000e+00 1.000000e+00  0.000000e+00 2.500000e-01 1.000000e+00  0.000000e+00 2.474671e-01 0.000000e+00  4.247355e-01 0.000000e+00 7.518018e-01  6.089632e-01 0.000000e+00 1.000000e+00  0.000000e+00 0.000000e+00 1.000000e+00  1.000000e+00 1.189175e-01 0.000000e+00  5.032955e-01 3.994106e-01 1.697118e-01  3.907284e-01 6.718305e-01 3.657524e-01  0.000000e+00 1.000000e+00 0.000000e+00  4.442617e-01 3.255596e-01 6.944329e-01  0.000000e+00 1.575340e-01 6.253033e-01  2.223345e-01 5.465339e-01 1.000000e+00  1.618849e-01 3.002772e-01 4.174271e-01  3.948705e-01 2.101814e-01 3.954317e-01  0.000000e+00 6.737065e-01 1.000000e+00  1.000000e+00 1.000000e+00 1.000000e+00  2.616966e-01 2.726283e-01 0.000000e+00  1.000000e+00 0.000000e+00 2.128459e-01  0.000000e+00 6.393581e-01 2.211553e-01  2.053831e-01 0.000000e+00 1.000000e+00  0.000000e+00 4.372967e-01 2.135185e-01  7.560765e-01 1.830073e-01 0.000000e+00  5.024608e-01 1.000000e+00 3.455939e-01  1.000000e+00 0.000000e+00 0.000000e+00  4.263347e-01 1.000000e+00 0.000000e+00  0.000000e+00 5.000000e-01 0.000000e+00  2.208639e-01 2.187139e-01 7.181182e-01  5.416653e-01 3.349239e-01 0.000000e+00  7.228942e-01 0.000000e+00 5.770265e-01  1.000000e+00 1.167306e-01 1.639890e-01  2.212622e-01 4.609770e-01 7.231607e-01  4.861360e-01 6.090846e-01 1.809495e-01  7.051608e-01 4.152829e-01 0.000000e+00  4.740978e-01 6.311913e-01 0.000000e+00  7.042204e-01 0.000000e+00 0.000000e+00  1.000000e+00 4.605045e-01 0.000000e+00  1.000000e+00 0.000000e+00 1.265268e-01  4.628292e-01 3.171786e-01 3.975619e-01  0.000000e+00 4.112034e-01 7.652110e-01  7.056626e-01 2.996286e-01 1.704233e-01  1.312473e-01 1.000000e+00 0.000000e+00  2.583357e-01 4.564586e-01 1.736204e-01  3.104051e-01 5.645033e-01 0.000000e+00  1.875585e-01 6.799414e-01 4.481626e-01  6.027643e-01 0.000000e+00 6.928008e-01  5.014806e-01 0.000000e+00 0.000000e+00  0.000000e+00 2.707742e-01 5.204638e-01  2.308819e-01 0.000000e+00 7.851628e-01  5.000000e-01 7.500000e-01 7.500000e-01  7.867799e-01 1.587062e-01 1.604344e-01  2.599240e-01 4.169830e-01 0.000000e+00  0.000000e+00 7.381797e-01 4.516830e-01  1.000000e+00 1.277792e-01 5.660428e-01  0.000000e+00 7.395862e-01 0.000000e+00  0.000000e+00 0.000000e+00 0.000000e+00  2.155072e-01 0.000000e+00 0.000000e+00  0.000000e+00 0.000000e+00 2.358564e-01  3.667055e-01 0.000000e+00 1.000000e+00  2.501299e-01 4.108665e-01 3.764807e-01  0.000000e+00 1.000000e+00 1.952425e-01  4.269734e-01 0.000000e+00 4.085357e-01  7.421867e-01 0.000000e+00 2.940652e-01  0.000000e+00 2.961264e-01 1.589774e-01  6.645561e-01 3.994598e-01 4.224587e-01  4.753438e-01 2.390302e-01 1.000000e+00  6.812397e-01 4.479658e-01 7.347304e-01  2.356154e-01 0.000000e+00 2.665431e-01  5.076932e-01 0.000000e+00 1.104608e-01  7.942759e-01 6.503764e-01 1.000000e+00  4.262373e-01 3.520881e-01 2.447563e-01  0.000000e+00 0.000000e+00 8.551471e-01  0.000000e+00 1.000000e+00 2.973753e-01  1.000000e+00 4.265479e-01 4.963244e-01  2.191873e-01 7.158662e-01 7.193406e-01  6.327315e-01 6.457855e-01 4.645795e-01  2.455516e-01 6.379189e-01 2.063179e-01  8.075137e-02 1.000000e+00 4.124474e-01  5.002135e-01 1.611174e-01 0.000000e+00  0.000000e+00 0.000000e+00 5.661276e-01  4.395750e-01 1.207039e-01 1.000000e+00  1.993513e-01 0.000000e+00 4.684253e-01  2.015481e-01 3.188211e-01 1.594232e-01  1.866914e-01 1.255801e-01 1.000000e+00  1.113769e-01 3.200442e-01 6.149104e-01  6.515089e-01 2.779133e-01 8.689951e-01  8.567182e-01 0.000000e+00 5.855944e-01  6.015877e-01 2.651743e-01 2.686451e-01  8.550856e-01 1.916837e-01 4.983819e-01  0.000000e+00 3.818600e-01 6.877115e-02  5.123553e-01 0.000000e+00 9.082718e-01  3.521602e-01 0.000000e+00 5.431874e-01  5.937266e-01 2.276471e-01 6.098192e-01  8.455537e-01 3.642757e-01 3.936951e-01  3.731899e-01 4.515589e-01 1.112488e-01  1.750131e-01 8.220270e-01 0.000000e+00  1.298489e-01 1.000000e+00 2.552235e-01  3.324104e-01 3.036120e-01 5.648001e-01  1.055732e-01 2.143992e-01 8.477455e-01  1.203036e-01 3.883218e-01 8.776877e-01  2.586331e-01 1.374241e-01 4.075526e-01  3.636033e-01 3.023656e-01 0.000000e+00  8.308598e-01 0.000000e+00 1.845335e-01  0.000000e+00 8.544971e-01 3.127047e-01  1.129116e-01 4.695012e-01 1.348298e-01  1.096876e-01 0.000000e+00 7.577907e-01  0.000000e+00 5.063865e-01 3.125794e-01  8.410862e-01 1.546988e-01 1.186436e-01  8.382145e-01 0.000000e+00 0.000000e+00  1.236150e-01 3.005240e-01 0.000000e+00  1.394208e-01 2.130559e-01 6.039807e-01  3.459064e-01 2.257403e-01 7.639376e-01  5.913996e-01 3.631114e-01 8.955492e-02  2.356475e-01 8.155412e-01 0.000000e+00  5.842625e-01 1.839748e-01 3.781405e-01  3.792330e-01 5.111241e-01 8.772542e-01  7.598989e-01 7.267081e-01 2.120624e-01  4.139521e-01 4.421148e-01 2.798285e-01  6.329227e-01 4.011389e-01 6.411341e-01  6.059724e-01 0.000000e+00 4.359720e-01  4.033260e-01 0.000000e+00 0.000000e+00  5.855076e-01 0.000000e+00 1.089028e-01  0.000000e+00 1.052764e-01 4.738169e-01  3.184162e-01 0.000000e+00 8.857335e-01  2.039235e-01 0.000000e+00 6.047952e-01  8.479406e-01 1.790845e-01 3.117506e-01  6.243506e-01 1.824226e-01 1.368882e-01  0.000000e+00 8.781012e-01 5.995257e-01  1.702644e-01 0.000000e+00 1.328304e-01  4.148236e-01 0.000000e+00 2.612951e-01  1.304355e-01 0.000000e+00 3.758359e-01  3.244649e-01 4.872599e-01 5.489875e-01  3.352286e-01 3.394100e-01 2.730190e-01  0.000000e+00 5.098656e-01 5.248832e-01  7.824794e-01 0.000000e+00 6.124043e-01  8.154173e-01 2.124023e-01 4.255586e-01  3.196909e-01 1.366328e-01 6.567286e-01  3.851431e-01 1.300456e-01 8.476484e-01  4.835339e-01 0.000000e+00 1.000000e+00  0.000000e+00 0.000000e+00 9.772841e-01  5.536068e-01 3.888722e-01 5.491515e-01  5.681658e-01 3.766356e-01 2.248738e-01  4.360792e-01 4.869080e-01 1.159846e-01  0.000000e+00 8.361686e-01 0.000000e+00  3.518604e-01 2.564049e-01 6.799819e-01  6.755027e-02 1.011104e-01 8.991564e-01  1.323102e-01 2.150673e-01 3.619437e-01  5.563971e-01 1.698916e-01 5.351314e-01  8.266526e-01 0.000000e+00 3.278897e-01  0.000000e+00 6.206730e-01 1.304679e-01  1.901011e-01 1.204156e-01 8.284592e-01  0.000000e+00 3.600915e-01 3.570693e-01  8.286558e-01 3.315186e-01 1.824413e-01  1.000000e+00 6.782896e-02 1.784437e-01  3.387027e-01 3.386480e-01 8.224134e-01  1.653612e-01 5.373194e-01 8.890283e-01  2.271127e-01 8.053229e-01 1.790376e-01  5.812575e-01 0.000000e+00 0.000000e+00  7.335046e-01 1.257593e-01 1.401552e-01  4.953977e-01 6.069913e-01 6.194931e-01  3.488824e-01 5.135403e-01 4.163404e-01  2.701048e-01 6.531920e-01 0.000000e+00  4.050515e-01 3.743726e-01 0.000000e+00  3.559370e-01 3.934973e-01 1.052448e-01  8.732393e-02 6.378937e-01 7.027829e-01  2.200900e-01 5.789423e-01 1.103512e-01  0.000000e+00 0.000000e+00 1.677266e-01  2.745916e-01 0.000000e+00 1.776047e-01  1.225785e-01 0.000000e+00 2.386038e-01  0.000000e+00 0.000000e+00 4.342250e-01  2.389768e-01 3.495798e-01 3.495916e-01  3.286214e-01 1.967704e-01 3.119437e-01  5.817187e-01 1.072620e-01 2.339314e-01  6.310690e-01 2.415338e-01 4.285781e-01  3.836424e-01 1.653259e-01 1.793184e-01  1.022416e-01 3.973594e-01 4.474653e-01  8.456256e-01 0.000000e+00 7.906243e-01  7.865515e-01 1.613247e-01 4.977968e-01  0.000000e+00 1.000000e+00 6.533680e-01  0.000000e+00 2.252651e-01 8.099651e-01  0.000000e+00 1.934771e-01 1.099840e-01  4.281028e-01 1.208508e-01 6.266433e-01  4.469819e-01 0.000000e+00 8.544384e-01  4.828305e-01 1.956263e-01 6.348080e-01  0.000000e+00 6.405583e-01 8.391749e-01  6.140497e-01 3.085841e-01 1.997513e-01  3.003005e-01 2.087410e-01 5.317066e-01  2.086500e-01 1.683454e-01 5.305018e-01  5.208971e-01 1.634559e-01 2.998186e-01  8.016223e-01 1.832273e-01 2.681831e-01  1.312764e-01 5.739506e-01 1.005145e-01  1.971733e-01 0.000000e+00 8.619402e-01  1.177839e-01 3.339412e-01 2.173762e-01  8.498486e-01 1.108595e-01 0.000000e+00  6.464544e-01 2.125690e-01 0.000000e+00  0.000000e+00 6.232055e-01 0.000000e+00  2.026525e-01 2.307674e-01 8.244588e-01  5.675179e-01 4.468354e-01 0.000000e+00  7.178228e-01 0.000000e+00 4.248723e-01  7.277570e-01 2.732465e-01 3.057024e-01  1.939092e-01 4.565986e-01 5.570505e-01  4.758895e-01 4.882736e-01 3.037069e-01  5.607216e-01 7.157006e-02 1.152826e-01  6.901769e-01 9.722509e-02 1.616534e-01  3.819944e-01 5.612989e-01 5.684611e-01  4.563323e-01 3.524497e-01 3.288601e-01  1.655563e-01 1.000000e+00 1.269662e-01  1.944747e-01 5.645165e-01 0.000000e+00  8.725793e-02 0.000000e+00 6.769706e-01  3.492030e-01 0.000000e+00 6.883218e-01  7.378663e-01 1.262380e-01 2.220843e-01  0.000000e+00 6.142339e-01 3.358009e-01  0.000000e+00 7.551506e-01 5.816735e-01  8.086072e-02 7.179653e-01 0.000000e+00  1.106548e-01 0.000000e+00 0.000000e+00  2.944634e-01 0.000000e+00 8.442364e-02  4.142713e-01 6.626265e-02 1.000000e+00  3.839338e-01 0.000000e+00 3.737756e-01  3.973358e-01 2.218159e-01 3.220701e-01  6.134826e-01 0.000000e+00 2.815031e-01  1.406697e-01 1.713984e-01 3.147577e-01  4.156429e-01 0.000000e+00 1.417597e-01  2.407978e-01 6.089060e-01 6.114334e-01  8.544439e-01 0.000000e+00 4.054356e-01  4.854721e-01 0.000000e+00 5.518376e-01  2.641543e-01 1.364011e-01 1.650883e-01  7.086766e-01 2.795803e-01 4.829267e-01  3.852907e-01 4.528513e-01 7.011464e-01  0.000000e+00 3.653116e-01 8.554252e-01  4.399554e-01 0.000000e+00 6.673361e-01  0.000000e+00 7.770495e-01 7.865829e-01  6.735625e-01 1.881516e-01 6.659155e-01  5.839746e-01 3.233781e-01 1.498510e-01  0.000000e+00 7.660940e-01 1.714854e-01  0.000000e+00 3.568786e-01 7.034811e-01  2.561264e-01 3.917196e-01 9.057257e-01  1.204940e-01 2.857222e-01 5.263120e-01  8.549567e-02 5.445541e-01 8.411747e-01  8.821564e-01 0.00000
[...]
<PointData  Scalars="scalar variable">
<DataArray  type="Float64"  Name="scalar variable"  format="ascii">-2.147871e+00  -7.915961e-15  3.776020e-01  4.248543e+00  8.521598e+00  5.154690e+00  2.046114e-01  3.887870e+00  -7.313228e+00  6.510715e+00  4.620647e+00  2.936252e-03  8.232279e-01  7.984001e+00  2.276225e+00  5.511769e+00  3.845154e+00  8.328076e+00  4.681896e+00  3.735068e+00  1.360437e-01  9.179459e+00  -9.870780e-11  -9.191663e+00  7.876988e+00  -1.925146e+00  2.674054e+00  -9.371440e+00  4.051288e+00  -4.848241e-05  2.751377e+00  6.387070e-01  -8.254922e+00  1.358369e+00  6.849737e+00  1.075459e+01  2.305559e+00  1.741840e+00  4.240936e+00  1.706081e+00  2.457391e+00  8.067481e+00  1.110060e-01  5.576431e+00  8.880342e+00  8.556120e+00  5.651763e+00  2.735915e+00  2.392088e+00  7.005962e+00  3.355004e+00  9.513073e+00  8.077634e-01  -3.409217e+00  4.895105e+00  1.032437e+00  5.368282e+00  1.348265e+01  3.995811e+00  3.746373e+00  1.263659e+01  -1.651801e+00  -6.570495e+00  -2.915614e+00  1.329425e+01  -7.391178e+00  6.498898e+00  -3.111501e+00  6.697960e+00  -1.273191e+01  4.216202e+00  1.211346e+00  2.229536e+00  -1.867598e+01  -7.252604e-01  -2.153749e-04  7.765602e+00  2.433423e+00  7.655639e+00  -5.350437e-05  1.710488e+00  2.174704e-02  8.163800e+00  4.917202e-01  7.386872e+00  -6.100408e-01  4.764676e+00  1.462010e+00  -2.021517e+01  7.826947e+00  -2.030151e-01  3.922462e+00  5.473252e+00  8.252800e+00  6.133986e+00  -1.002257e+01  5.565681e+00  -6.082632e+00  8.976904e+00  2.938153e+00  1.073333e+01  9.497211e+00  3.001745e+00  3.790111e+00  8.077512e+00  6.619008e+00  -8.240051e+00  -9.023956e-01  7.972234e+00  2.779510e+00  -1.107016e+01  1.032007e+00  -2.687815e+00  3.178423e+00  5.409429e+00  -7.412708e+00  -1.025424e+00  3.061522e+00  6.250750e+00  4.792826e+00  9.260096e+00  1.476593e+00  2.131341e+00  5.636215e+00  5.554939e+00  4.393906e+00  -2.881366e+00  3.752862e+00  -8.070565e+00  9.094676e+00  3.178558e+00  5.798211e+00  6.377577e+00  5.825725e+00  -1.016389e+01  -4.840998e+00  -7.268022e-01  -2.840345e+00  -6.224784e+00  3.204125e+00  5.566096e+00  7.374869e+00  5.122891e+00  5.637695e+00  8.957446e+00  1.218180e+00  1.334905e+01  6.817882e+00  7.494982e+00  9.074180e+00  2.601762e+00  5.501065e+00  -4.498423e+00  4.556474e+00  7.287474e+00  -5.090034e+00  2.016212e+00  -6.390329e+00  2.005820e+00  3.940995e+00  3.253258e+00  4.917913e+00  3.488425e+00  4.437622e+00  6.717881e+00  4.956389e+00  8.522071e+00  4.870938e+00  7.196417e+00  1.062413e+01  2.853149e+00  1.040020e+01  -2.283708e+00  -1.262324e+01  -1.079580e+01  -1.762828e+00  -1.380317e+01  -1.166334e+01  7.231781e+00  6.234501e+00  -3.475022e+00  7.935987e-01  2.925427e+00  1.316968e+01  3.930125e+00  6.107973e+00  -5.114421e+00  3.323379e+00  9.902480e+00  7.743809e+00  1.233385e+01  6.676142e+00  3.762590e+00  3.456813e+00  -2.946083e-01  6.622635e+00  5.778754e+00  3.784580e+00  -1.479331e+01  3.401332e+00  6.059384e+00  2.190834e+00  4.592658e+00  6.927850e+00  8.726275e+00  3.978661e+00  -2.824669e+00  6.560639e+00  7.916541e+00  8.160140e+00  6.117673e+00  8.322972e+00  2.868830e+00  9.821276e+00  2.142532e+00  -5.937633e-01  6.033121e+00  6.539980e-01  4.910768e+00  1.106690e+01  -4.111148e+00  -5.705746e+00  9.029461e+00  -1.089374e+01  -4.668143e+00  2.986350e+00  -1.158720e+01  -1.803313e+00  -5.649285e-01  6.380363e+00  -8.443630e-01  -6.126853e+00  6.368900e+00  3.448265e+00  6.221995e+00  2.140412e-01  1.213483e+01  1.366542e+01  6.017644e+00  1.793312e+00  8.442098e+00  3.967577e+00  1.354822e+00  6.016304e+00  7.582231e+00  1.035333e+00  5.355722e+00  7.984150e+00  2.553739e+00  -8.813181e+00  4.730358e+00  5.214432e+00  4.080403e+00  2.715767e+00  7.458609e+00  2.741991e+00  2.868826e+00  2.765976e+00  3.329877e+00  4.228569e+00  2.553707e+00  7.382720e+00  6.252551e+00  5.472356e+00  5.899394e+00  2.532746e+00  3.293688e+00  6.022212e+00  1.305962e+01  1.896398e+00  -5.907845e+00  -6.991602e+00  -4.725930e+00  -1.918381e+00  -1.040124e+01  5.166937e+00  -1.175849e+01  8.009201e+00  9.116912e-01  -1.186434e+00  -2.464159e+00  -4.715865e+00  7.040685e+00  2.459938e+00  7.243650e+00  -7.232418e+00  -2.871697e+00  3.216491e+00  5.492321e+00  9.152721e+00  7.570427e+00  7.062133e+00  7.237983e-01  7.553319e+00  3.090103e+00  -2.417843e+00  6.062766e+00  8.199293e+00  3.093563e+00  6.533664e+00  3.280962e+00  4.997921e+00  -7.152415e+00  1.037160e+01  8.118401e+00  7.292974e+00  2.793497e+00  6.362748e+00  3.883808e+00  4.843223e+00  1.629254e-01  -7.016331e+00  1.472896e+00  3.633356e+00  4.059830e+00  2.439821e+00  -7.331499e-01  4.277909e+00  7.118305e+00  8.113921e+00  7.574248e+00  3.625109e+00  6.738455e+00  5.526915e+00  4.377427e+00  6.431953e+00  1.044498e+01  1.923362e+00  6.418226e+00  6.994890e+00  4.036832e+00  6.810541e+00  5.388855e+00  6.327878e+00  5.801391e+00  -1.697683e+00  4.940179e+00  1.085539e+01  9.207672e+00  -8.367192e+00  -7.823764e+00  1.119446e+01  7.331349e+00  4.146105e+00  2.327050e+00  6.053695e+00  6.964871e+00  3.520171e+00  7.071590e+00  1.825801e+00  2.281819e+00  5.902680e+00  -1.422761e+01  -1.184510e+01  1.779787e+00  9.651833e+00  -9.417876e+00  1.028206e+01  -1.891881e+00  6.872866e+00  5.255664e+00  -7.230447e+00  5.368246e+00  6.526191e+00  5.061663e+00  -8.351821e+00  -6.082033e+00  6.687286e+00  6.611817e+00  6.855580e+00  -2.778544e+00  4.240264e+00  2.856836e+00  -7.784075e+00  -1.299460e+01  -5.712188e+00  7.066860e+00  3.199829e+00  1.197587e+01  6.112469e+00  6.005334e+00  6.411029e+00  2.660874e+00  6.611591e+00  7.218025e+00  4.723286e+00  1.075665e+01  8.110072e+00  -6.036515e+00  6.675120e+00  2.613896e+00  5.450513e+00  6.152044e+00  5.361806e+00  3.076355e+00  2.613866e+00  1.550105e+00  1.664724e-01  5.226522e+00  3.260880e+00  5.910171e+00  7.063432e+00  3.019999e+00  6.275965e+00  4.176552e+00  7.587564e+00  6.163952e+00  -1.036801e+00  3.664264e+00  6.670258e+00  5.777329e-01  2.324904e+00  3.773278e+00  1.122893e+01  -1.967754e+00  -2.339221e+00  7.998055e+00  7.475380e+00  4.842155e+00  -6.729358e+00  -8.606984e+00  -8.138280e-01  -1.321821e+00  8.830505e+00  4.259847e-01  8.428204e+00  7.180306e+00  1.793548e+00  -1.452037e+00  5.679237e+00  6.690832e+00  5.734407e+00  6.123223e+00  -6.284494e+00  4.339437e+00  -9.566182e-01  4.778702e+00  1.073355e+01  -8.895095e+00  7.307251e+00  5.700719e+00  -7.616755e+00  -6.733121e+00  9.277921e+00  4.395094e+00  6.994992e+00  -8.819224e-01  6.430106e+00  -5.551375e+00  3.364943e+00  5.808753e+00  2.817401e+00  7.833620e+00  6.396075e+00  -6.952899e+00  2.923611e+00  8.851690e-02  2.499124e+00  4.860898e+00  7.609779e+00  5.982691e+00  2.553025e+00  -4.482514e+00  -8.667899e+00  -8.738559e+00  -4.798468e+00  1.308416e+00  4.304915e+00  8.385087e+00  -2.973294e+00  7.597881e+00  -3.288899e+00  -5.648293e+00  2.334712e-01  5.375783e+00  2.878684e+00  4.709785e+00  5.034466e+00  2.652542e+00  -7.833815e+00  3.025966e+00  4.184162e+00  5.148980e+00  5.867959e+00  6.381503e+00  4.726191e+00  8.113810e+00  6.579331e+00  1.111470e+01  5.880122e+00  5.943132e+00  -5.705543e+00  5.759402e+00  4.155697e+00  7.138874e+00  7.539584e+00  -4.731609e-02  -2.009629e+00  -9.736035e-01  -4.899773e+00  1.934841e+00  5.995458e+00  1.194142e+01  2.946104e+00  7.413712e+00  8.996156e+00  -2.881474e+00  -5.340821e+00  5.645862e+00  -8.247456e-01  6.412024e-01  -3.976250e+00  5.545933e+00  7.429050e+00  -8.615168e+00  -1.673464e+01  -2.100141e+00  1.130545e+00  -1.308571e+00  3.431603e+00  7.498692e+00  3.109002e+00  1.508252e-01  6.209803e+00  2.603916e-01  8.793940e+00  7.742290e+00  -4.798704e-01  5.645261e+00  7.364540e+00  -9.951694e+00  3.845139e+00  2.286411e+00  -4.439662e+00  -1.024402e+01  3.569990e+00  6.784785e+00  2.913749e+00  5.982984e+00  3.690128e+00  -4.293556e+00  -7.076299e+00  1.292397e+00  7.147059e+00  -7.137519e+00  7.214951e+00  6.859713e+00  3.885531e+00  2.860987e+00  -5.053736e+00  -9.701390e+00  -7.569179e+00  2.656700e+00  6.428568e+00  6.301700e+00  -2.696702e+00  1.626768e+00  9.465970e+00  1.138942e+01  8.851047e+00  6.495767e+00  3.730581e+00  7.109762e+00  8.139797e+00  3.360326e+00  1.044409e+01  1.284259e+00  6.269899e+00  1.067448e+01  8.584450e-01  5.767919e+00  8.333489e+00  1.789492e+00  2.917350e+00  4.405381e+00  5.911802e+00  1.113365e+01  -6.514058e+00  3.761641e+00  -9.538757e+00  8.925563e+00  -7.468245e+00  7.394521e+00  8.360474e+00  -1.175443e+00  1.084564e+01  6.996977e+00  5.857409e+00  4.694467e+00  5.054932e+00  5.210767e+00  -6.213824e+00  -6.610536e+00  2.000826e+00  7.874802e+00  6.679113e+00  3.549206e+00  3.859018e+00  1.935556e+00  2.598539e+00  1.963077e+00  4.698070e+00  7.128676e+00  1.426778e+00  3.229317e+00  4.176646e+00  4.750900e+00  2.427454e+00  -1.423505e+01  -3.032044e+00  8.791532e+00  4.731677e+00  7.222529e+00  7.649631e+00  7.725100e+00  7.720491e+00  9.500552e+00  7.250472e+00  7.539377e+00  1.158925e+01  -5.420586e-01  -2.217321e+00  -5.739891e+00  2.530789e+00  6.043082e+00  1.210799e+01  3.432318e+00  1.193276e+01  -3.681994e+00  -2.185590e+00  4.683864e+00  6.915124e+00  -5.675776e+00  -1.703055e+00  -1.977932e+00  6.831415e+00  6.547017e+00  -1.156658e+01  5.175094e+00  5.388420e+00  -2.783129e+00  -8.810308e-01  7.964701e+00  5.094192e+00  4.986512e-03  5.540103e+00  7.883861e-01  5.803619e+00  9.321466e+00  7.535341e+00  7.142960e+00  -2.934295e+00  6.766689e+00  1.056676e+01  6.829846e+00  7.345058e+00  5.902752e+00  -1.159127e-01  -8.095937e-01  1.908899e+00  8.417172e+00  2.403235e+00  1.774772e+00  4.639889e+00  6.804679e+00  -1.047984e+01  -8.035867e+00  -5.273372e+00  -4.754570e+00  -3.379689e+00  -1.244815e+00  -4.275283e+00  5.254354e+00  5.823111e+00  4.740045e+00  4.289852e+00  2.249571e+00  8.006875e+00  -4.404086e+00  2.992240e+00  8.625880e+00  2.261879e+00  6.388633e+00  7.319872e+00  7.346107e+00  4.248024e+00  7.576497e+00  7.877959e+00  -4.095776e+00  -1.219086e+01  -9.640046e+00  5.375976e+00  5.859683e+00  2.558706e+00  5.500031e+00  3.984794e+00  3.169159e+00  3.740868e+00  3.140008e+00  6.565487e+00  7.494065e+00  7.611786e+00  3.089682e+00  3.200564e+00  -5.009496e+00  3.332378e+00  4.543143e+00  7.007092e+00  -3.311754e-01  3.522689e+00  3.036475e+00  -6.546561e+00  -5.381222e+00  -8.815843e+00  -3.802248e-01  5.184535e+00  6.379915e+00  6.959506e+00  -5.631781e+00  -6.590216e+00  6.398919e+00  1.308888e+00  1.184154e+00  -5.561357e+00  -6.239170e+00  7.620491e+00  -2.605511e-01  8.890847e+00  -7.832524e+00  -7.548651e+00  -6.512708e+00  6.105580e-01  3.651326e+00  4.496052e+00  -4.052004e+00  2.346259e+00  1.949317e+00  -7.928231e-02  -3.548187e+00  7.856561e+00  -7.448705e+00  6.969877e+00  -1.105168e+01  -9.092311e+00  5.384584e+00  5.055336e+00  2.574240e+00  7.023077e+00  3.864681e+00  7.992011e+00  7.402968e+00  6.797198e+00  6.887862e+00  5.950170e+00  7.416042e+00  5.277944e+00  8.869645e+00  2.195168e+00  2.639183e+00  8.286604e-01  6.439008e+00  -1.145189e-01  2.379784e-02  2.150671e+00  5.049320e+00  5.420319e+00  1.092213e+01  -3.779823e+00  3.863109e-01  4.993662e+00  -7.387419e+00  6.992717e+00  5.770058e+00  7.630292e+00  2.145290e+00  7.612106e+00  3.715672e+00  -9.202804e-02  -2.296078e-01  4.343569e+00  5.915768e+00  -2.310311e+00  2.320284e+00  6.732321e+00  8.466914e-01  5.494661e+00  -3.463497e+00  5.156511e+00  8.964872e+00  4.748831e-01  4.173292e+00  4.736079e+00  6.420501e+00  3.462808e+00  -8.245495e+00  -1.784869e+00  3.944104e+00  6.063655e+00  1.505704e+00  6.405695e+00  4.482744e+00  7.403015e+00  5.517434e+00  6.227048e+00  4.719373e+00  -2.342339e+00  -3.803648e+00  3.369606e+00  -5.267362e+00  6.439628e+00  7.225803e+00  -8.732117e+00  -3.322156e+00  -8.299743e+00  -3.081409e+00  -5.761299e+00  -1.702637e+00  3.147114e+00  4.542123e+00  4.245762e+00  5.433746e+00  4.057481e+00  7.420397e+00  3.922958e+00  2.195730e+00  7.657513e+00  1.144110e+00  1.011074e+01  -2.125731e+00  7.672796e+00  9.775022e+00  4.946276e+00  -4.956444e+00  1.750425e-01  1.155276e+00  1.016221e+00  2.977520e+00  5.699253e+00  2.207846e-02  -1.764029e+00  -4.911668e+00  -4.831261e+00  4.256633e+00  8.322646e-01  -1.290741e+01  4.725645e-01  -8.942671e+00  9.172387e+00  6.954242e+00  3.389071e+00  5.766100e+00  1.907380e+00  8.076068e-01  2.794597e+00  3.273184e+00  7.405885e+00  -7.129833e+00  -5.858766e+00  -1.071526e+00  -1.598032e+00  -5.640001e+00  6.856985e+00  7.905793e+00  2.504847e+00  6.614155e+00  6.236431e+00  9.861452e+00  6.705585e+00  -6.702778e+00  -4.210627e+00  4.999832e+00  5.224276e+00  -3.004223e+00  6.366560e+00  5.944520e+00  -9.651108e-01  4.455438e+00  -4.640491e+00  -7.185170e+00  -5.319832e+00  -1.401339e+00  -1.267490e+01  -5.403807e+00  6.856273e+00  2.313073e+00  7.450981e+00  7.445249e+00  4.442895e+00  3.402610e+00  -5.897871e+00  -7.990563e+00  -6.055848e+00  -7.390736e+00  6.074205e+00  6.789047e+00  7.400942e+00  3.616307e+00  5.399148e+00  6.498938e+00  3.864481e+00  4.619884e+00  6.269229e+00  3.748829e+00  -3.541596e-01  -1.090745e+01  -7.852861e+00  7.228160e+00  3.119327e+00  -6.497652e+00  -1.022080e+01  3.726310e+00  5.369287e+00  -1.152411e+01  2.402350e+00  -9.249469e+00  7.307670e+00  6.888794e+00  1.196214e+01  1.208282e+00  2.297495e+00  5.043452e-01  3.978416e+00  4.133360e+00  1.284199e+00  7.461530e+00  6.988826e+00  7.565456e+00  8.090645e+00  1.332356e+00  7.557421e+00  7.703267e+00  8.458297e+00  5.951256e+00  7.000477e+00  4.736339e+00  4.066853e+00  6.698440e+00  -3.032296e-03  -2.936688e+00  7.620785e-01  4.384807e+00  2.515572e+00  8.204934e+00  1.228468e+01  -1.809777e+00  -6.781048e+00  -5.648213e+00  -1.821208e+00  5.654465e-01  -3.042398e+00  -6.531598e+00  -1.376261e+01  3.754945e+00  4.958460e+00  1.853064e+00  6.300566e+00  1.397455e+00  7.481010e+00  5.642886e+00  4.270698e+00  2.129612e+00  5.792882e+00  5.750389e+00  6.900007e+00  6.471251e+00  -8.982375e-01  -1.309835e+00  3.371089e-01  4.324242e+00  -1.518206e+00  9.439974e-01  7.334983e-01  8.127576e+00  6.601365e+00  1.500555e+00  -1.312910e+00  1.065004e+01  9.163858e+00  5.931046e+00  6.414405e+00  9.004212e+00  -5.606673e+00  3.107955e+00  1.587270e+00  4.744916e+00  6.073942e+00  5.571918e+00  1.076567e+00  7.172570e-01  3.679831e+00  3.157390e+00  8.791534e+00  2.049649e+00  -7.177529e+00  5.555444e+00  1.102477e+00  6.762318e+00  9.079786e+00  -2.832507e+00  4.442740e+00  1.835427e+00  4.760752e+00  7.032950e+00  1.223188e+01  8.143257e+00  8.144565e+00  2.697629e+00  3.914142e+00  5.804519e+00  5.590151e+00  -9.150798e+00  3.939926e+00  6.150141e+00  6.065361e+00  7.448627e+00  -1.449600e+00  -4.427244e+00  -7.317912e+00  5.840731e+00  4.086145e+00  5.646601e+00  5.724120e+00  6.434962e+00  7.096631e+00  3.412194e+00  5.570418e+00  -3.541088e+00  6.379348e+00  4.181163e+00  6.133811e+00  -2.639168e+00  4.996143e+00  9.922401e+00  6.164984e+00  7.855617e+00  1.154525e+01  5.567238e+00  6.105714e+00  6.561408e+00  6.224008e+00  3.753204e+00  1.725648e+00  6.543415e+00  6.214299e+00  7.531800e+00  3.493170e-01  8.150092e+00  -4.725985e+00  -4.871464e+00  -6.348674e+00  -4.288722e+00  -3.682422e+00  4.239336e+00  2.821525e+00  6.792168e-01  6.527742e+00  3.158545e+00  3.168227e+00  5.175499e+00  6.666416e+00  7.302834e+00  4.572395e+00  4.010165e+00  6.112438e+00  5.636874e+00  2.421251e+00  -5.195180e+00  -4.509743e+00  -5.619994e+00  -9.687622e+00  7.066212e+00  6.787174e+00  5.881985e+00  -2.090134e+00  -6.432301e+00  4.590074e+00  7.857023e+00  7.426133e+00  9.016274e+00  8.310692e+00  6.300356e+00  7.406940e+00  2.219849e+00  4.773095e+00  -6.575144e+00  -3.519326e+00  5.768009e+00  4.146567e+00  5.083402e+00  2.985050e+00  6.161821e+00  -3.383111e+00  -4.715865e+00  7.783539e+00  7.272423e+00  -3.629049e+00  -7.938039e+00  6.538887e+00  7.218390e+00  -7.115447e-01  -7.946071e+00  -7.478299e+00  -2.739915e+00  -2.432418e+00  -6.027136e+00  -8.515930e+00  </DataArray>
</PointData>
</Piece>
</UnstructuredGrid>
</VTKFile>