<?xml version="1.0"?>
<VTKFile type="UnstructuredGrid"  version="0.1"  >
<UnstructuredGrid>
<Piece  NumberOfPoints="125" NumberOfCells="384">
<Points>
<DataArray  type="Float64"  NumberOfComponents="3"  format="ascii">0.000000e+00 5.000000e-01 5.000000e-01  1.000000e+00 1.000000e+00 0.000000e+00  7.500000e-01 2.500000e-01 1.000000e+00  1.000000e+00 0.000000e+00 1.000000e+00  1.000000e+00 0.000000e+00 7.500000e-01  7.500000e-01 2.500000e-01 5.000000e-01  5.000000e-01 5.000000e-01 7.500000e-01  0.000000e+00 1.000000e+00 1.000000e+00  0.000000e+00 2.500000e-01 1.000000e+00  0.000000e+00 2.500000e-01 0.000000e+00  5.000000e-01 0.000000e+00 7.500000e-01  0.000000e+00 7.500000e-01 7.500000e-01  7.500000e-01 1.000000e+00 2.500000e-01  7.500000e-01 0.000000e+00 1.000000e+00  0.000000e+00 0.000000e+00 1.000000e+00  1.000000e+00 2.500000e-01 0.000000e+00  7.500000e-01 2.500000e-01 7.500000e-01  5.000000e-01 1.000000e+00 7.500000e-01  5.000000e-01 1.000000e+00 1.000000e+00  1.000000e+00 5.000000e-01 5.000000e-01  5.000000e-01 5.000000e-01 2.500000e-01  5.000000e-01 7.500000e-01 5.000000e-01  0.000000e+00 1.000000e+00 0.000000e+00  5.000000e-01 2.500000e-01 7.500000e-01  0.000000e+00 2.500000e-01 7.500000e-01  2.500000e-01 5.000000e-01 1.000000e+00  2.500000e-01 2.500000e-01 5.000000e-01  5.000000e-01 2.500000e-01 5.000000e-01  0.000000e+00 5.000000e-01 1.000000e+00  1.000000e+00 1.000000e+00 1.000000e+00  2.500000e-01 2.500000e-01 0.000000e+00  1.000000e+00 0.000000e+00 5.000000e-01  0.000000e+00 7.500000e-01 2.500000e-01  2.500000e-01 0.000000e+00 1.000000e+00  0.000000e+00 5.000000e-01 2.500000e-01  7.500000e-01 2.500000e-01 0.000000e+00  7.500000e-01 1.000000e+00 5.000000e-01  7.500000e-01 5.000000e-01 1.000000e+00  1.000000e+00 7.500000e-01 7.500000e-01  2.500000e-01 1.000000e+00 1.000000e+00  1.000000e+00 5.000000e-01 2.500000e-01  1.000000e+00 0.000000e+00 0.000000e+00  5.000000e-01 1.000000e+00 0.000000e+00  0.000000e+00 5.000000e-01 0.000000e+00  2.500000e-01 2.500000e-01 7.500000e-01  5.000000e-01 5.000000e-01 0.000000e+00  7.500000e-01 0.000000e+00 5.000000e-01  1.000000e+00 2.500000e-01 2.500000e-01  2.500000e-01 1.000000e+00 7.500000e-01  2.500000e-01 5.000000e-01 7.500000e-01  7.500000e-01 7.500000e-01 7.500000e-01  5.000000e-01 7.500000e-01 2.500000e-01  7.500000e-01 5.000000e-01 0.000000e+00  5.000000e-01 7.500000e-01 0.000000e+00  7.500000e-01 0.000000e+00 0.000000e+00  1.000000e+00 5.000000e-01 0.000000e+00  1.000000e+00 0.000000e+00 2.500000e-01  7.500000e-01 7.500000e-01 2.500000e-01  5.000000e-01 5.000000e-01 5.000000e-01  2.500000e-01 1.000000e+00 2.500000e-01  0.000000e+00 5.000000e-01 7.500000e-01  7.500000e-01 5.000000e-01 2.500000e-01  2.500000e-01 1.000000e+00 0.000000e+00  1.000000e+00 7.500000e-01 0.000000e+00  2.500000e-01 5.000000e-01 2.500000e-01  2.500000e-01 7.500000e-01 1.000000e+00  7.500000e-01 7.500000e-01 0.000000e+00  2.500000e-01 7.500000e-01 0.000000e+00  5.000000e-01 1.000000e+00 2.500000e-01  2.500000e-01 7.500000e-01 5.000000e-01  7.500000e-01 0.000000e+00 7.500000e-01  5.000000e-01 0.000000e+00 0.000000e+00  0.000000e+00 2.500000e-01 5.000000e-01  1.000000e+00 7.500000e-01 1.000000e+00  2.500000e-01 0.000000e+00 7.500000e-01  5.000000e-01 7.500000e-01 7.500000e-01  7.500000e-01 2.500000e-01 2.500000e-01  2.500000e-01 5.000000e-01 0.000000e+00  0.000000e+00 7.500000e-01 5.000000e-01  1.000000e+00 2.500000e-01 7.500000e-01  0.000000e+00 7.500000e-01 0.000000e+00  0.000000e+00 0.000000e+00 0.000000e+00  2.500000e-01 0.000000e+00 0.000000e+00  1.000000e+00 5.000000e-01 1.000000e+00  0.000000e+00 0.000000e+00 2.500000e-01  5.000000e-01 7.500000e-01 1.000000e+00  5.000000e-01 0.000000e+00 1.000000e+00  1.000000e+00 1.000000e+00 5.000000e-01  2.500000e-01 5.000000e-01 5.000000e-01  0.000000e+00 1.000000e+00 2.500000e-01  5.000000e-01 0.000000e+00 5.000000e-01  7.500000e-01 0.000000e+00 2.500000e-01  7.500000e-01 1.000000e+00 0.000000e+00  0.000000e+00 2.500000e-01 2.500000e-01  7.500000e-01 5.000000e-01 5.000000e-01  1.000000e+00 1.000000e+00 2.500000e-01  5.000000e-01 5.000000e-01 1.000000e+00  7.500000e-01 5.000000e-01 7.500000e-01  2.500000e-01 0.000000e+00 2.500000e-01  5.000000e-01 0.000000e+00 2.500000e-01  0.000000e+00 1.000000e+00 5.000000e-01  7.500000e-01 7.500000e-01 1.000000e+00  1.000000e+00 2.500000e-01 1.000000e+00  7.500000e-01 1.000000e+00 7.500000e-01  5.000000e-01 2.500000e-01 2.500000e-01  0.000000e+00 0.000000e+00 7.500000e-01  0.000000e+00 1.000000e+00 7.500000e-01  1.000000e+00 7.500000e-01 2.500000e-01  2.500000e-01 7.500000e-01 7.500000e-01  1.000000e+00 1.000000e+00 7.500000e-01  7.500000e-01 7.500000e-01 5.000000e-01  2.500000e-01 7.500000e-01 2.500000e-01  1.000000e+00 2.500000e-01 5.000000e-01  2.500000e-01 1.000000e+00 5.000000e-01  0.000000e+00 7.500000e-01 1.000000e+00  1.000000e+00 7.500000e-01 5.000000e-01  5.000000e-01 2.500000e-01 0.000000e+00  1.000000e+00 5.000000e-01 7.500000e-01  0.000000e+00 0.000000e+00 5.000000e-01  5.000000e-01 2.500000e-01 1.000000e+00  5.000000e-01 1.000000e+00 5.000000e-01  2.500000e-01 0.000000e+00 5.000000e-01  7.500000e-01 1.000000e+00 1.000000e+00  2.500000e-01 2.500000e-01 2.500000e-01  2.500000e-01 2.500000e-01 1.000000e+00  </DataArray>
</Points>
<Cells>
<DataArray  type="UInt32"  Name="connectivity"  format="ascii">36 38 110 115  111 69 21 113  17 101 75 50  68 110 51 57  36 68 12 57  51 94 21 20  122 17 103 50  61 94 19 110  0 44 60 72  78 49 11 0  67 111 51 59  27 23 16 6  104 46 27 99  113 75 21 17  57 19 110 61  92 107 66 63  59 21 113 111  60 124 24 44  24 33 124 8  9 98 81 82  18 48 17 75  45 76 35 61  88 23 49 26  98 121 90 26  120 50 103 17  96 49 6 23  20 5 76 94  108 78 69 88  22 111 67 59  43 123 9 30  6 2 37 96  21 97 75 58  51 94 61 110  120 50 110 103  61 112 94 76  92 107 63 95  78 49 108 11  66 40 52 55  44 86 124 74  93 121 72 84  110 51 57 61  76 31 91 56  99 90 46 27  88 23 6 49  106 65 108 39  49 25 96 65  110 117 50 94  26 10 121 90  123 90 98 99  100 108 69 48  100 108 78 69  110 117 19 38  67 20 77 45  27 123 104 99  77 104 30 116  52 61 40 57  76 31 112 5  16 3 4 102  24 8 124 28  100 108 106 78  22 111 80 67  88 23 26 27  60 28 25 114  30 99 104 123  20 58 94 21  48 85 108 75  76 5 112 94  19 61 40 47  64 27 104 58  88 49 6 108  104 27 5 58  34 26 0 93  38 110 115 19  52 47 61 35  80 64 32 43  97 58 94 5  9 93 123 34  50 83 101 97  17 101 18 75  116 91 76 104  111 58 64 20  103 73 122 50  75 37 97 101  120 59 68 51  97 102 83 37  6 2 96 23  110 117 38 50  89 69 32 111  45 76 20 116  68 110 57 36  21 111 51 20  91 46 31 5  111 58 20 21  23 13 119 10  44 72 26 121  59 22 62 67  77 104 116 20  24 33 105 74  115 57 107 40  74 33 86 124  105 14 33 8  37 6 97 16  68 62 42 53  20 5 58 104  53 61 45 52  30 99 123 82  72 74 121 44  17 113 120 21  42 57 12 68  62 51 53 68  45 76 116 35  104 30 116 71  111 80 67 77  78 49 0 88  17 101 50 122  123 26 27 88  94 79 97 5  53 61 52 57  5 4 79 16  42 57 53 66  26 10 23 44  69 6 108 88  43 123 64 34  57 53 66 52  123 90 26 98  123 90 27 26  94 79 112 117  75 37 6 97  10 86 13 119  21 75 50 17  109 36 87 115  68 110 120 51  52 47 40 61  35 56 54 41  93 121 26 72  108 96 49 6  66 57 107 12  76 31 56 112  50 83 117 73  34 0 88 78  62 51 59 67  94 79 5 112  34 26 88 0  2 23 16 70  78 11 108 106  16 3 70 4  43 123 30 64  69 6 88 58  6 88 58 27  5 4 31 79  64 27 58 88  110 50 38 103  57 19 61 40  108 96 85 65  16 27 5 46  35 56 41 47  9 98 93 81  116 91 71 54  53 61 51 45  5 4 16 46  108 96 6 85  116 104 76 20  40 52 55 15  118 105 74 24  5 4 46 31  49 119 25 44  111 58 69 64  60 124 44 25  120 50 17 21  77 64 20 111  120 50 21 110  93 121 84 98  21 97 58 94  65 11 108 49  103 73 38 29  0 60 49 11  49 0 88 26  61 112 47 19  0 44 26 49  11 25 114 60  0 44 49 60  80 32 111 89  68 110 36 120  27 70 90 46  97 102 79 83  70 13 3 2  42 57 66 12  43 123 34 9  5 16 79 97  20 5 94 58  103 73 29 122  75 69 21 58  69 32 111 64  26 44 23 49  79 5 112 31  20 77 45 116  104 46 91 5  44 124 119 25  47 35 15 41  94 79 117 97  45 76 61 20  49 119 44 23  30 99 71 104  106 65 7 11  52 47 15 40  59 21 120 113  69 6 75 108  39 106 48 108  61 45 52 35  67 20 51 111  60 124 25 28  64 27 88 123  50 21 110 94  23 26 27 90  26 10 44 121  52 47 35 15  75 85 101 18  111 58 21 69  69 6 58 75  12 115 107 87  78 49 88 108  36 38 109 103  16 3 102 2  85 108 75 6  51 21 110 120  43 34 64 32  32 88 78 34  72 74 24 118  58 16 5 97  12 115 36 57  45 20 61 51  66 40 55 107  48 85 75 18  80 64 111 32  95 92 1 63  23 13 10 70  59 21 51 120  66 40 107 57  92 107 12 66  89 69 100 32  113 75 48 69  62 51 68 59  48 85 18 39  6 2 16 37  117 94 19 112  80 64 43 77  22 111 89 80  50 101 73 122  59 21 111 51  106 65 11 108  32 88 69 78  35 56 47 76  64 43 77 30  87 12 95 107  100 108 48 106  20 5 104 76  123 90 99 27  69 108 75 48  27 70 16 23  36 38 103 110  116 91 54 76  25 60 49 44  58 6 97 75  11 114 65 7  76 31 5 91  35 56 76 54  0 44 72 26  58 16 6 27  11 25 60 49  107 66 63 55  108 65 85 39  92 107 95 12  24 33 8 105  61 112 19 94  11 25 65 114  21 97 94 50  12 42 92 66  72 74 44 24  94 97 117 50  108 96 65 49  104 46 5 27  27 70 23 90  67 20 111 77  51 67 53 45  60 124 28 24  22 111 59 89  9 98 82 123  6 2 23 16  72 74 118 121  94 20 61 76  35 76 47 61  49 119 96 25  116 91 104 71  57 110 115 36  44 86 119 124  97 102 16 79  34 26 123 88  103 120 36 110  30 123 104 64  102 16 79 4  49 119 23 96  51 94 110 21  124 24 44 74  29 103 109 38  32 88 64 69  53 51 57 68  50 83 97 117  119 44 23 10  26 93 123 98  23 13 2 119  16 3 2 70  12 115 87 36  27 70 46 16  64 88 58 69  89 69 111 113  58 16 27 5  123 9 30 82  61 112 76 47  71 99 91 104  97 37 83 101  113 75 17 48  26 10 90 23  46 70 4 16  36 38 115 109  89 69 113 100  90 10 70 23  76 116 35 54  24 33 74 124  66 40 57 52  30 99 82 71  9 98 123 93  121 74 10 44  6 96 37 85  113 75 69 21  67 20 45 51  23 119 2 96  75 37 85 6  34 26 93 123  44 86 10 119  51 94 20 61  64 27 123 104  50 83 73 101  101 75 50 97  5 104 76 91  113 89 59 111  12 115 57 107  82 98 99 123  48 85 39 108  32 78 69 100  112 76 47 56  93 121 98 26  16 2 102 37  110 117 94 19  77 104 20 64  97 102 37 16  57 19 40 115  17 101 122 18  93 72 26 0  103 73 50 38  54 91 56 76  53 61 57 51  72 24 44 60  42 57 68 53  32 88 34 64  84 118 121 72  75 37 101 85  81 84 98 93  23 13 70 2  88 23 27 6  11 25 49 65  88 34 64 123  77 104 64 30  80 64 77 111  21 97 50 75  106 65 39 7  104 46 99 91  83 97 117 79  58 64 20 104  57 19 115 110  44 86 74 10  48 100 113 69  73 50 38 117  62 51 67 53  58 16 97 6  </DataArray>
<DataArray  type="UInt32"  Name="offsets"  format="ascii">4 8 12 16 20 24 28 32 36 40 44 48 52 56 60 64 68 72 76 80 84 88 92 96 100 104 108 112 116 120 124 128 132 136 140 144 148 152 156 160 164 168 172 176 180 184 188 192 196 200 204 208 212 216 220 224 228 232 236 240 244 248 252 256 260 264 268 272 276 280 284 288 292 296 300 304 308 312 316 320 324 328 332 336 340 344 348 352 356 360 364 368 372 376 380 384 388 392 396 400 404 408 412 416 420 424 428 432 436 440 444 448 452 456 460 464 468 472 476 480 484 488 492 496 500 504 508 512 516 520 524 528 532 536 540 544 548 552 556 560 564 568 572 576 580 584 588 592 596 600 604 608 612 616 620 624 628 632 636 640 644 648 652 656 660 664 668 672 676 680 684 688 692 696 700 704 708 712 716 720 724 728 732 736 740 744 748 752 756 760 764 768 772 776 780 784 788 792 796 800 804 808 812 816 820 824 828 832 836 840 844 848 852 856 860 864 868 872 876 880 884 888 892 896 900 904 908 912 916 920 924 928 932 936 940 944 948 952 956 960 964 968 972 976 980 984 988 992 996 1000 1004 1008 1012 1016 1020 1024 1028 1032 1036 1040 1044 1048 1052 1056 1060 1064 1068 1072 1076 1080 1084 1088 1092 1096 1100 1104 1108 1112 1116 1120 1124 1128 1132 1136 1140 1144 1148 1152 1156 1160 1164 1168 1172 1176 1180 1184 1188 1192 1196 1200 1204 1208 1212 1216 1220 1224 1228 1232 1236 1240 1244 1248 1252 1256 1260 1264 1268 1272 1276 1280 1284 1288 1292 1296 1300 1304 1308 1312 1316 1320 1324 1328 1332 1336 1340 1344 1348 1352 1356 1360 1364 1368 1372 1376 1380 1384 1388 1392 1396 1400 1404 1408 1412 1416 1420 1424 1428 1432 1436 1440 1444 1448 1452 1456 1460 1464 1468 1472 1476 1480 1484 1488 1492 1496 1500 1504 1508 1512 1516 1520 1524 1528 1532 1536 </DataArray>
<DataArray  type="UInt8"  Name="types"  format="ascii">10 10 10 10 10 10 10 10 10 10 10 10 10 10 10 10 10 10 10 10 10 10 10 10 10 10 10 10 10 10 10 10 10 10 10 10 10 10 10 10 10 10 10 10 10 10 10 10 10 10 10 10 10 10 10 10 10 10 10 10 10 10 10 10 10 10 10 10 10 10 10 10 10 10 10 10 10 10 10 10 10 10 10 10 10 10 10 10 10 10 10 10 10 10 10 10 10 10 10 10 10 10 10 10 10 10 10 10 10 10 10 10 10 10 10 10 10 10 10 10 10 10 10 10 10 10 10 10 10 10 10 10 10 10 10 10 10 10 10 10 10 10 10 10 10 10 10 10 10 10 10 10 10 10 10 10 10 10 10 10 10 10 10 10 10 10 10 10 10 10 10 10 10 10 10 10 10 10 10 10 10 10 10 10 10 10 10 10 10 10 10 10 10 10 10 10 10 10 10 10 10 10 10 10 10 10 10 10 10 10 10 10 10 10 10 10 10 10 10 10 10 10 10 10 10 10 10 10 10 10 10 10 10 10 10 10 10 10 10 10 10 10 10 10 10 10 10 10 10 10 10 10 10 10 10 10 10 10 10 10 10 10 10 10 10 10 10 10 10 10 10 10 10 10 10 10 10 10 10 10 10 10 10 10 10 10 10 10 10 10 10 10 10 10 10 10 10 10 10 10 10 10 10 10 10 10 10 10 10 10 10 10 10 10 10 10 10 10 10 10 10 10 10 10 10 10 10 10 10 10 10 10 10 10 10 10 10 10 10 10 10 10 10 10 10 10 10 10 10 10 10 10 10 10 10 10 10 10 10 10 10 10 10 10 10 10 10 10 10 10 10 10 10 10 10 10 10 10 10 10 10 10 10 10 </DataArray>
</Cells>
<PointData  Scalars="scalar variable">
<DataArray  type="Float64"  Name="scalar variable"  format="ascii">1.099997e+01  1.100000e+01  1.100000e+01  1.100000e+01  1.100000e+01  1.100000e+01  1.100000e+01  1.100000e+01  1.100000e+01  1.000000e+01  1.100000e+01  1.100000e+01  1.100000e+01  1.100000e+01  1.100000e+01  1.100000e+01  1.100000e+01  1.100000e+01  1.100000e+01  1.100000e+01  1.100000e+01  1.100000e+01  1.100000e+01  1.100000e+01  1.100000e+01  1.100000e+01  1.099638e+01  1.100000e+01  1.100000e+01  1.100000e+01  1.000066e+01  1.100000e+01  1.100000e+01  1.100000e+01  1.095030e+01  1.100000e+01  1.100000e+01  1.100000e+01  1.100000e+01  1.100000e+01  1.100000e+01  1.100000e+01  1.100000e+01  1.050000e+01  1.100000e+01  1.099997e+01  1.100000e+01  1.100000e+01  1.100000e+01  1.100000e+01  1.100000e+01  1.100000e+01  1.100000e+01  1.100000e+01  1.100000e+01  1.100000e+01  1.100000e+01  1.100000e+01  1.100000e+01  1.100000e+01  1.100000e+01  1.100000e+01  1.100000e+01  1.100000e+01  1.099638e+01  1.100000e+01  1.100000e+01  1.100000e+01  1.100000e+01  1.100000e+01  1.100000e+01  1.050000e+01  1.095030e+01  1.100000e+01  1.100000e+01  1.100000e+01  1.100000e+01  1.095030e+01  1.100000e+01  1.100000e+01  1.100000e+01  1.000000e+01  1.000000e+01  1.100000e+01  1.000000e+01  1.100000e+01  1.100000e+01  1.100000e+01  1.100000e+01  1.100000e+01  1.099997e+01  1.100000e+01  1.100000e+01  1.000066e+01  1.100000e+01  1.100000e+01  1.100000e+01  1.100000e+01  1.000066e+01  1.095030e+01  1.100000e+01  1.100000e+01  1.100000e+01  1.100000e+01  1.099638e+01  1.100000e+01  1.100000e+01  1.100000e+01  1.100000e+01  1.100000e+01  1.100000e+01  1.100000e+01  1.100000e+01  1.100000e+01  1.100000e+01  1.100000e+01  1.095030e+01  1.100000e+01  1.050000e+01  1.100000e+01  1.100000e+01  1.095030e+01  1.100000e+01  1.003392e+01  1.100000e+01  </DataArray>
</PointData>
</Piece>
</UnstructuredGrid>
</VTKFile>